VARIABLES=s,x,y,z,u,v,w,rho,rhosN2,rhosO2,rhosNO,rhosNO+,rhosN2+,rhosO2+,rhosN,rhosO,rhosN+,rhosO+,rhose,csN2,csO2,csNO,csNO+,csN2+,csO2+,csN,csO,csN+,csO+,cse,t,tv,p,m,kt,kv,mu
ZONE N=6100, E=2940, T="FiniteElementBlock", VARLOCATION=([2-4]=NODAL,[5-37]=CELLCENTERED)
PASSIVEVARLIST=[1]
ZONETYPE=FEBRICK, DATAPACKING=BLOCK
 -2.498044142E-02
 -2.333393062E-02
 -2.180037585E-02
 -2.036864812E-02
 -1.903076433E-02
 -1.778010197E-02
 -1.661077658E-02
 -1.551740070E-02
 -1.449497876E-02
 -1.353885341E-02
 -1.264467230E-02
 -1.180836394E-02
 -1.102611785E-02
 -1.029436710E-02
 -9.609772411E-03
 -8.969207491E-03
 -8.369745250E-03
 -7.808644903E-03
 -7.283339840E-03
 -6.791426202E-03
 -6.330652160E-03
 -5.898907800E-03
 -5.494215642E-03
 -5.114721703E-03
 -4.758687118E-03
 -4.424480245E-03
 -4.110569265E-03
 -3.815515201E-03
 -3.537965378E-03
 -3.276647245E-03
 -3.030362581E-03
 -2.797982010E-03
 -2.578439859E-03
 -2.370729273E-03
 -2.173897618E-03
 -1.987042118E-03
 -1.809305727E-03
 -1.639873198E-03
 -1.477967346E-03
 -1.322845484E-03
 -1.173796005E-03
 -1.030135114E-03
 -8.912036637E-04
 -7.563641156E-04
 -6.249975717E-04
 -4.965009011E-04
 -3.702839257E-04
 -2.457667162E-04
 -1.223770530E-04
  4.515778610E-07
 -2.487083680E-02
 -2.321264402E-02
 -2.168976994E-02
 -2.027078638E-02
 -1.894399972E-02
 -1.770249931E-02
 -1.654070916E-02
 -1.545357538E-02
 -1.443637242E-02
 -1.348465235E-02
 -1.259422566E-02
 -1.176114833E-02
 -1.098171009E-02
 -1.025242295E-02
 -9.570009765E-03
 -8.931393143E-03
 -8.333684481E-03
 -7.774173315E-03
 -7.250316973E-03
 -6.759730548E-03
 -6.300177271E-03
 -5.869559236E-03
 -5.465908562E-03
 -5.087378934E-03
 -4.732237590E-03
 -4.398857680E-03
 -4.085711069E-03
 -3.791361496E-03
 -3.514458147E-03
 -3.253729563E-03
 -3.007977921E-03
 -2.776073623E-03
 -2.556950212E-03
 -2.349599558E-03
 -2.153067330E-03
 -1.966448711E-03
 -1.788884366E-03
 -1.619556630E-03
 -1.457685955E-03
 -1.302527607E-03
 -1.153368661E-03
 -1.009525387E-03
 -8.703411320E-04
 -7.351849613E-04
 -6.034514163E-04
 -4.745620963E-04
 -3.479702446E-04
 -2.231706220E-04
 -9.971910818E-05
  2.272811616E-05
 -2.474821390E-02
 -2.302391931E-02
 -2.147734250E-02
 -2.005539087E-02
 -1.873506431E-02
 -1.750381491E-02
 -1.635333862E-02
 -1.527731551E-02
 -1.427048287E-02
 -1.332821442E-02
 -1.244631336E-02
 -1.162090400E-02
 -1.084837187E-02
 -1.012532868E-02
 -9.448590143E-03
 -8.815160753E-03
 -8.222221973E-03
 -7.667122302E-03
 -7.147368299E-03
 -6.660616077E-03
 -6.204663136E-03
 -5.777440399E-03
 -5.377004481E-03
 -5.001530155E-03
 -4.649303091E-03
 -4.318712814E-03
 -4.008245988E-03
 -3.716479937E-03
 -3.442076509E-03
 -3.183776193E-03
 -2.940392566E-03
 -2.710806986E-03
 -2.493963594E-03
 -2.288864547E-03
 -2.094565507E-03
 -1.910171349E-03
 -1.734832077E-03
 -1.567738911E-03
 -1.408120542E-03
 -1.255239513E-03
 -1.108388697E-03
 -9.668878505E-04
 -8.300801999E-04
 -6.973290285E-04
 -5.680142418E-04
 -4.415289527E-04
 -3.172762245E-04
 -1.946665427E-04
 -7.311752756E-05
  4.793954962E-05
 -2.461272380E-02
 -2.280233203E-02
 -2.121153323E-02
 -1.977108697E-02
 -1.844703670E-02
 -1.722012364E-02
 -1.607810219E-02
 -1.501239838E-02
 -1.401649442E-02
 -1.308509080E-02
 -1.221365152E-02
 -1.139815007E-02
 -1.063492457E-02
 -9.920593590E-03
 -9.252006008E-03
 -8.626210085E-03
 -8.040433230E-03
 -7.492067763E-03
 -6.978659964E-03
 -6.497900904E-03
 -6.047618302E-03
 -5.625768898E-03
 -5.230431234E-03
 -4.859798648E-03
 -4.512172542E-03
 -4.185955828E-03
 -3.879646646E-03
 -3.591832276E-03
 -3.321183332E-03
 -3.066448162E-03
 -2.826447532E-03
 -2.600069508E-03
 -2.386264608E-03
 -2.184041130E-03
 -1.992460733E-03
 -1.810634163E-03
 -1.637717192E-03
 -1.472906690E-03
 -1.315436849E-03
 -1.164575518E-03
 -1.019620640E-03
 -8.798967569E-04
 -7.447515664E-04
 -6.135525048E-04
 -4.856833434E-04
 -3.605408410E-04
 -2.375315417E-04
 -1.160691384E-04
  4.426595591E-06
  1.245261721E-04
 -2.446372609E-02
 -2.255565835E-02
 -2.090917626E-02
 -1.944004493E-02
 -1.810402499E-02
 -1.687526195E-02
 -1.573737159E-02
 -1.467921045E-02
 -1.369267907E-02
 -1.277151438E-02
 -1.191060190E-02
 -1.110557531E-02
 -1.035257983E-02
 -9.648130747E-03
 -8.989027651E-03
 -8.372301424E-03
 -7.795180539E-03
 -7.255068624E-03
 -6.749528642E-03
 -6.276270882E-03
 -5.833143199E-03
 -5.418122533E-03
 -5.029307254E-03
 -4.664909964E-03
 -4.323250709E-03
 -4.002750423E-03
 -3.701924680E-03
 -3.419377625E-03
 -3.153796210E-03
 -2.903944599E-03
 -2.668658874E-03
 -2.446841914E-03
 -2.237458538E-03
 -2.039530819E-03
 -1.852133622E-03
 -1.674390265E-03
 -1.505468344E-03
 -1.344575605E-03
 -1.190955877E-03
 -1.043884914E-03
 -9.026660948E-04
 -7.666257744E-04
 -6.351080859E-04
 -5.074688445E-04
 -3.830680421E-04
 -2.612602165E-04
 -1.413815387E-04
 -2.273204121E-05
  9.544939113E-05
  2.140200126E-04
 -2.429961749E-02
 -2.228503166E-02
 -2.057582623E-02
 -1.907163316E-02
 -1.771795386E-02
 -1.648250225E-02
 -1.534482977E-02
 -1.429119759E-02
 -1.331183537E-02
 -1.239939881E-02
 -1.154807212E-02
 -1.075303424E-02
 -1.001013638E-02
 -9.315704905E-03
 -8.666419254E-03
 -8.059235295E-03
 -7.491336078E-03
 -6.960099247E-03
 -6.463074547E-03
 -5.997967443E-03
 -5.562626498E-03
 -5.155033015E-03
 -4.773292148E-03
 -4.415624919E-03
 -4.080360904E-03
 -3.765931346E-03
 -3.470862694E-03
 -3.193770383E-03
 -2.933352980E-03
 -2.688386510E-03
 -2.457719098E-03
 -2.240265780E-03
 -2.035003590E-03
 -1.840966790E-03
 -1.657242330E-03
 -1.482965399E-03
 -1.317315145E-03
 -1.159510405E-03
 -1.008805469E-03
 -8.644857124E-04
 -7.258630232E-04
 -5.922707933E-04
 -4.630582207E-04
 -3.375835051E-04
 -2.152053144E-04
 -9.527160773E-05
  2.289565784E-05
  1.400220881E-04
  2.569121250E-04
  3.744949013E-04
 -2.412257361E-02
 -2.199326224E-02
 -2.021504976E-02
 -1.867025591E-02
 -1.729396349E-02
 -1.604749845E-02
 -1.490638232E-02
 -1.385426852E-02
 -1.287966553E-02
 -1.197407628E-02
 -1.113090478E-02
 -1.034479801E-02
 -9.611242724E-03
 -8.926315075E-03
 -8.286522866E-03
 -7.688704853E-03
 -7.129965114E-03
 -6.607629244E-03
 -6.119214087E-03
 -5.662405951E-03
 -5.235044163E-03
 -4.835107985E-03
 -4.460705773E-03
 -4.110065542E-03
 -3.781526599E-03
 -3.473531850E-03
 -3.184620735E-03
 -2.913422556E-03
 -2.658650262E-03
 -2.419094506E-03
 -2.193618091E-03
 -1.981150604E-03
 -1.780683388E-03
 -1.591264650E-03
 -1.411994823E-03
 -1.242021995E-03
 -1.080537478E-03
 -9.267713283E-04
 -7.799878031E-04
 -6.394805366E-04
 -5.045672836E-04
 -3.745838772E-04
 -2.488769785E-04
 -1.267949135E-04
 -7.675545139E-06
  1.091704478E-04
  2.244835212E-04
  3.390905994E-04
  4.539587931E-04
  5.702789980E-04
 -2.386633115E-02
 -2.162057577E-02
 -1.977719202E-02
 -1.819631315E-02
 -1.680119254E-02
 -1.554650582E-02
 -1.440385074E-02
 -1.335447009E-02
 -1.238534177E-02
 -1.148697082E-02
 -1.065209666E-02
 -9.874916103E-03
 -9.150606937E-03
 -8.475031200E-03
 -7.844547499E-03
 -7.255890538E-03
 -6.706092205E-03
 -6.192428737E-03
 -5.712384163E-03
 -5.263624143E-03
 -4.843976352E-03
 -4.451415160E-03
 -4.084049092E-03
 -3.740110182E-03
 -3.417944652E-03
 -3.116004527E-03
 -2.832839998E-03
 -2.567092337E-03
 -2.317487325E-03
 -2.082829050E-03
 -1.861994104E-03
 -1.653926056E-03
 -1.457630240E-03
 -1.272168739E-03
 -1.096655599E-03
 -9.302521453E-04
 -7.721624039E-04
 -6.216284670E-04
 -4.779257561E-04
 -3.403579404E-04
 -2.082513293E-04
 -8.094832432E-05
  4.220055845E-05
  1.618469497E-04
  2.786583965E-04
  3.933376459E-04
  5.066506052E-04
  6.194682194E-04
  7.328310914E-04
  8.480521563E-04
 -2.357517690E-02
 -2.120509461E-02
 -1.929158546E-02
 -1.767089552E-02
 -1.625389602E-02
 -1.498841720E-02
 -1.384204261E-02
 -1.279354361E-02
 -1.182831653E-02
 -1.093582319E-02
 -1.010809859E-02
 -9.338855205E-03
 -8.622933294E-03
 -7.955957449E-03
 -7.334118337E-03
 -6.754031825E-03
 -6.212646111E-03
 -5.707179259E-03
 -5.235075818E-03
 -4.793975818E-03
 -4.381691612E-03
 -3.996189973E-03
 -3.635577621E-03
 -3.298089143E-03
 -2.982076552E-03
 -2.686000084E-03
 -2.408419896E-03
 -2.147988499E-03
 -1.903443773E-03
 -1.673602482E-03
 -1.457354208E-03
 -1.253655647E-03
 -1.061525224E-03
 -8.800379492E-04
 -7.083205014E-04
 -5.455464188E-04
 -3.909313778E-04
 -2.437283911E-04
 -1.032228400E-04
  3.127291979E-05
  1.604256145E-04
  2.848882602E-04
  4.053091127E-04
  5.223434056E-04
  6.366693598E-04
  7.490109797E-04
  8.601715720E-04
  9.710847550E-04
  1.082894505E-03
  1.197085163E-03
 -2.316049814E-02
 -2.066671127E-02
 -1.868990264E-02
 -1.703699718E-02
 -1.560483166E-02
 -1.433399760E-02
 -1.318810482E-02
 -1.214363092E-02
 -1.118459310E-02
 -1.029959576E-02
 -9.480125607E-03
 -8.719536342E-03
 -8.012429017E-03
 -7.354266609E-03
 -6.741129792E-03
 -6.169559661E-03
 -5.636454180E-03
 -5.138998667E-03
 -4.674617550E-03
 -4.240940033E-03
 -3.835774468E-03
 -3.457088754E-03
 -3.102994472E-03
 -2.771733877E-03
 -2.461668623E-03
 -2.171270035E-03
 -1.899110285E-03
 -1.643854531E-03
 -1.404253612E-03
 -1.179137395E-03
 -9.674085203E-04
 -7.680366062E-04
 -5.800527416E-04
 -4.025442955E-04
 -2.346498985E-04
 -7.555458425E-05
  7.551504870E-05
  2.192957549E-04
  3.564928104E-04
  4.877856822E-04
  6.138345068E-04
  7.352879347E-04
  8.527930310E-04
  9.670084881E-04
  1.078622877E-03
  1.188381016E-03
  1.297123167E-03
  1.405845505E-03
  1.515796273E-03
  1.628634733E-03
 -2.269285887E-02
 -2.006806765E-02
 -1.802167063E-02
 -1.633098248E-02
 -1.487889637E-02
 -1.359878499E-02
 -1.245021577E-02
 -1.140725821E-02
 -1.045242542E-02
 -9.573348371E-03
 -8.760866921E-03
 -8.007896493E-03
 -7.308736947E-03
 -6.658642274E-03
 -6.053547322E-03
 -5.489891341E-03
 -4.964501474E-03
 -4.474514442E-03
 -4.017322128E-03
 -3.590533005E-03
 -3.191943406E-03
 -2.819515792E-03
 -2.471361235E-03
 -2.145725295E-03
 -1.840975798E-03
 -1.555592486E-03
 -1.288157610E-03
 -1.037347699E-03
 -8.019258528E-04
 -5.807348607E-04
 -3.726906493E-04
 -1.767763343E-04
  7.963508388E-06
  1.824281530E-04
  3.474659082E-04
  5.038790763E-04
  6.524289288E-04
  7.938407256E-04
  9.288090184E-04
  1.058003455E-03
  1.182075439E-03
  1.301666206E-03
  1.417417053E-03
  1.529983044E-03
  1.640051980E-03
  1.748371968E-03
  1.855792524E-03
  1.963328451E-03
  2.072262091E-03
  2.184314267E-03
 -2.198809888E-02
 -1.924100732E-02
 -1.714264380E-02
 -1.543261976E-02
 -1.397713914E-02
 -1.270161078E-02
 -1.156158395E-02
 -1.052902494E-02
 -9.585323987E-03
 -8.717510185E-03
 -7.916105303E-03
 -7.173863315E-03
 -6.485009540E-03
 -5.844771430E-03
 -5.249083445E-03
 -4.694398287E-03
 -4.177563458E-03
 -3.695739075E-03
 -3.246341295E-03
 -2.827002572E-03
 -2.435542284E-03
 -2.069944692E-03
 -1.728341272E-03
 -1.408996564E-03
 -1.110295970E-03
 -8.307354815E-04
 -5.689123564E-04
 -3.235170121E-04
 -9.332543392E-05
  1.228075762E-04
  3.259548311E-04
  5.171225885E-04
  6.972561777E-04
  8.672452279E-04
  1.027928796E-03
  1.180100304E-03
  1.324512542E-03
  1.461882773E-03
  1.592898217E-03
  1.718222151E-03
  1.838501045E-03
  1.954373385E-03
  2.066481032E-03
  2.175484687E-03
  2.282085592E-03
  2.387057402E-03
  2.491294285E-03
  2.595886419E-03
  2.702242413E-03
  2.812296628E-03
 -2.121953197E-02
 -1.833582475E-02
 -1.617631296E-02
 -1.443968626E-02
 -1.297476009E-02
 -1.169878121E-02
 -1.056314938E-02
 -9.537591750E-03
 -8.602237539E-03
 -7.743384513E-03
 -6.951122391E-03
 -6.217947509E-03
 -5.537931553E-03
 -4.906211430E-03
 -4.318669869E-03
 -3.771732014E-03
 -3.262233072E-03
 -2.787330654E-03
 -2.344444811E-03
 -1.931216173E-03
 -1.545475229E-03
 -1.185219417E-03
 -8.485948589E-04
 -5.338817974E-04
 -2.394820741E-04
  3.609139420E-05
  2.942241539E-04
  5.362085038E-04
  7.632512563E-04
  9.764806322E-04
  1.176952824E-03
  1.365657936E-03
  1.543525705E-03
  1.711430804E-03
  1.870198028E-03
  2.020607262E-03
  2.163398500E-03
  2.299276940E-03
  2.428918422E-03
  2.552975450E-03
  2.672084197E-03
  2.786873122E-03
  2.897974022E-03
  3.006037022E-03
  3.111751566E-03
  3.215877216E-03
  3.319290099E-03
  3.423055905E-03
  3.528548458E-03
  3.637651363E-03
 -2.035626445E-02
 -1.733104838E-02
 -1.510557240E-02
 -1.333752456E-02
 -1.185858558E-02
 -1.057800685E-02
 -9.443105781E-03
 -8.421373650E-03
 -7.491648028E-03
 -6.639450337E-03
 -5.854390282E-03
 -5.128661701E-03
 -4.456143710E-03
 -3.831850392E-03
 -3.251586893E-03
 -2.711730467E-03
 -2.209088263E-03
 -1.740803048E-03
 -1.304288985E-03
 -8.971867296E-04
 -5.173308015E-04
 -1.627251928E-04
  1.684757575E-04
  4.779826806E-04
  7.673840626E-04
  1.038157150E-03
  1.291677609E-03
  1.529228010E-03
  1.752005600E-03
  1.961129277E-03
  2.157646132E-03
  2.342537423E-03
  2.516724267E-03
  2.681072968E-03
  2.836400200E-03
  2.983478023E-03
  3.123038964E-03
  3.255781216E-03
  3.382374257E-03
  3.503465131E-03
  3.619685867E-03
  3.731662688E-03
  3.840028006E-03
  3.945436791E-03
  4.048589782E-03
  4.150267718E-03
  4.251383488E-03
  4.353064621E-03
  4.456788712E-03
  4.564616131E-03
 -1.933154222E-02
 -1.616427862E-02
 -1.387493886E-02
 -1.207754019E-02
 -1.058611183E-02
 -9.301888498E-03
 -8.168198641E-03
 -7.150406204E-03
 -6.226153211E-03
 -5.380261981E-03
 -4.601921033E-03
 -3.883064732E-03
 -3.217409983E-03
 -2.599868656E-03
 -2.026181697E-03
 -1.492686661E-03
 -9.961672394E-04
 -5.337535764E-04
 -1.028546958E-04
  2.988887888E-04
  6.736387520E-04
  1.023385122E-03
  1.349965672E-03
  1.655081983E-03
  1.940312642E-03
  2.207124531E-03
  2.456882639E-03
  2.690858780E-03
  2.910239443E-03
  3.116132911E-03
  3.309575830E-03
  3.491539276E-03
  3.662934466E-03
  3.824618133E-03
  3.977397729E-03
  4.122036474E-03
  4.259258471E-03
  4.389753947E-03
  4.514184939E-03
  4.633191652E-03
  4.747400037E-03
  4.857431177E-03
  4.963913615E-03
  5.067500179E-03
  5.168891979E-03
  5.268873839E-03
  5.368368560E-03
  5.468523020E-03
  5.570850386E-03
  5.677475973E-03
 -1.817557069E-02
 -1.486442786E-02
 -1.250712087E-02
 -1.067506451E-02
 -9.165676896E-03
 -7.872722394E-03
 -6.735763692E-03
 -5.718085767E-03
 -4.796098061E-03
 -3.953850920E-03
 -3.180029020E-03
 -2.466227674E-03
 -1.805930600E-03
 -1.193886759E-03
 -6.257222800E-04
 -9.769337540E-05
  3.934736524E-04
  8.506888462E-04
  1.276570607E-03
  1.673496390E-03
  2.043638956E-03
  2.388993805E-03
  2.711400086E-03
  3.012557667E-03
  3.294040948E-03
  3.557310842E-03
  3.803724949E-03
  4.034546740E-03
  4.250953627E-03
  4.454044401E-03
  4.644845942E-03
  4.824319507E-03
  4.993366538E-03
  5.152834181E-03
  5.303520569E-03
  5.446179962E-03
  5.581527937E-03
  5.710246698E-03
  5.832990847E-03
  5.950393820E-03
  6.063075594E-03
  6.171652210E-03
  6.276748348E-03
  6.379014455E-03
  6.479151310E-03
  6.577946274E-03
  6.676329106E-03
  6.775460750E-03
  6.876880974E-03
  6.982765583E-03
 -1.669372695E-02
 -1.324760286E-02
 -1.083832128E-02
 -8.988540581E-03
 -7.476631461E-03
 -6.188136603E-03
 -5.058794703E-03
 -4.050027745E-03
 -3.137320126E-03
 -2.304267819E-03
 -1.539344017E-03
 -8.340588924E-04
 -1.818760234E-04
  4.224438232E-04
  9.832483491E-04
  1.504250337E-03
  1.988692324E-03
  2.439455509E-03
  2.859132556E-03
  3.250078680E-03
  3.614447597E-03
  3.954218788E-03
  4.271217878E-03
  4.567133452E-03
  4.843530346E-03
  5.101861397E-03
  5.343477189E-03
  5.569635059E-03
  5.781506836E-03
  5.980186147E-03
  6.166694902E-03
  6.341989486E-03
  6.506966442E-03
  6.662467939E-03
  6.809287005E-03
  6.948172674E-03
  7.079835228E-03
  7.204951577E-03
  7.324171212E-03
  7.438122859E-03
  7.547422575E-03
  7.652683796E-03
  7.754530762E-03
  7.853616857E-03
  7.950651146E-03
  8.046437605E-03
  8.141935914E-03
  8.238358328E-03
  8.337331406E-03
  8.441177857E-03
 -1.508719120E-02
 -1.148658490E-02
 -9.012683543E-03
 -7.134397831E-03
 -5.610543727E-03
 -4.318393675E-03
 -3.189774002E-03
 -2.184096954E-03
 -1.275750177E-03
 -4.477041778E-04
  3.119362288E-04
  1.011882719E-03
  1.658807370E-03
  2.258032744E-03
  2.813957474E-03
  3.330324507E-03
  3.810393077E-03
  4.257051877E-03
  4.672894819E-03
  5.060273790E-03
  5.421335980E-03
  5.758051889E-03
  6.072236475E-03
  6.365566357E-03
  6.639593605E-03
  6.895757756E-03
  7.135395887E-03
  7.359751816E-03
  7.569984062E-03
  7.767173290E-03
  7.952328932E-03
  8.126395473E-03
  8.290258186E-03
  8.444748661E-03
  8.590650024E-03
  8.728702113E-03
  8.859606626E-03
  8.984032494E-03
  9.102621667E-03
  9.215995658E-03
  9.324763365E-03
  9.429530810E-03
  9.530914026E-03
  9.629556671E-03
  9.726155367E-03
  9.821497208E-03
  9.916517714E-03
  1.001239341E-02
  1.011069656E-02
  1.021366637E-02
 -1.334462621E-02
 -9.589278709E-03
 -7.041115255E-03
 -5.121971782E-03
 -3.573833799E-03
 -2.266767966E-03
 -1.129043435E-03
 -1.181035432E-04
  7.928568580E-04
  1.621641149E-03
  2.380672493E-03
  3.079035684E-03
  3.723673123E-03
  4.320106448E-03
  4.872882725E-03
  5.385856359E-03
  5.862370884E-03
  6.305378901E-03
  6.717523003E-03
  7.101192100E-03
  7.458561627E-03
  7.791623484E-03
  8.102208822E-03
  8.392006311E-03
  8.662576888E-03
  8.915366355E-03
  9.151716028E-03
  9.372872269E-03
  9.579994785E-03
  9.774164289E-03
  9.956389323E-03
  1.012761271E-02
  1.028871739E-02
  1.044053213E-02
  1.058383681E-02
  1.071936776E-02
  1.084782302E-02
  1.096986787E-02
  1.108614083E-02
  1.119726046E-02
  1.130383354E-02
  1.140646530E-02
  1.150577305E-02
  1.160240489E-02
  1.169706665E-02
  1.179056210E-02
  1.188385499E-02
  1.197816879E-02
  1.207515369E-02
  1.217718624E-02
 -1.120200501E-02
 -7.309834955E-03
 -4.705547034E-03
 -2.762562522E-03
 -1.204988384E-03
  1.045854338E-04
  1.241330410E-03
  2.249498658E-03
  3.156771101E-03
  3.981417788E-03
  4.736115472E-03
  5.430088254E-03
  6.070355515E-03
  6.662481393E-03
  7.211036421E-03
  7.719887752E-03
  8.192385814E-03
  8.631486658E-03
  9.039834502E-03
  9.419818627E-03
  9.773614205E-03
  1.010321226E-02
  1.041044278E-02
  1.069699281E-02
  1.096442146E-02
  1.121417233E-02
  1.144758430E-02
  1.166590097E-02
  1.187027907E-02
  1.206179602E-02
  1.224145689E-02
  1.241020072E-02
  1.256890654E-02
  1.271839893E-02
  1.285945346E-02
  1.299280197E-02
  1.311913790E-02
  1.323912183E-02
  1.335338753E-02
  1.346254878E-02
  1.356720759E-02
  1.366796454E-02
  1.376543240E-02
  1.386025499E-02
  1.395313424E-02
  1.404487050E-02
  1.413642489E-02
  1.422901934E-02
  1.432430388E-02
  1.442466169E-02
 -8.806603985E-03
 -4.765274018E-03
 -2.099403342E-03
 -1.282347416E-04
  1.442626820E-03
  2.758086951E-03
  3.896758695E-03
  4.904628467E-03
  5.810315007E-03
  6.632624024E-03
  7.384552101E-03
  8.075521458E-03
  8.712678301E-03
  9.301670128E-03
  9.847123611E-03
  1.035294414E-02
  1.082250844E-02
  1.125879026E-02
  1.166444549E-02
  1.204187030E-02
  1.239324333E-02
  1.272055616E-02
  1.302563726E-02
  1.331017042E-02
  1.357571021E-02
  1.382369469E-02
  1.405545657E-02
  1.427223276E-02
  1.447517308E-02
  1.466534790E-02
  1.484375529E-02
  1.501132742E-02
  1.516893662E-02
  1.531740107E-02
  1.545749019E-02
  1.558993001E-02
  1.571540838E-02
  1.583458063E-02
  1.594807538E-02
  1.605650140E-02
  1.616045558E-02
  1.626053304E-02
  1.635734033E-02
  1.645151377E-02
  1.654374538E-02
  1.663482185E-02
  1.672568421E-02
  1.681752378E-02
  1.691194212E-02
  1.701124602E-02
 -6.133662979E-03
 -1.943446945E-03
  7.881099565E-04
  2.792770699E-03
  4.382242445E-03
  5.708468665E-03
  6.853343638E-03
  7.864556736E-03
  8.771689351E-03
  9.594130296E-03
  1.034524972E-02
  1.103472060E-02
  1.166986401E-02
  1.225645361E-02
  1.279920956E-02
  1.330210848E-02
  1.376858239E-02
  1.420164905E-02
  1.460399976E-02
  1.497805981E-02
  1.532603190E-02
  1.564992782E-02
  1.595159294E-02
  1.623272535E-02
  1.649489158E-02
  1.673953969E-02
  1.696801060E-02
  1.718154790E-02
  1.738130659E-02
  1.756836099E-02
  1.774371187E-02
  1.790829306E-02
  1.806297757E-02
  1.820858337E-02
  1.834587891E-02
  1.847558858E-02
  1.859839809E-02
  1.871496013E-02
  1.882590052E-02
  1.893182512E-02
  1.903332812E-02
  1.913100245E-02
  1.922545348E-02
  1.931731796E-02
  1.940729097E-02
  1.949616628E-02
  1.958489832E-02
  1.967470147E-02
  1.976721544E-02
  1.986482477E-02
 -3.079744221E-03
  1.251090155E-03
  4.043381661E-03
  6.078020213E-03
  7.683580006E-03
  9.018833676E-03
  1.016881156E-02
  1.118279018E-02
  1.209121850E-02
  1.291399057E-02
  1.366478711E-02
  1.435348134E-02
  1.498752896E-02
  1.557279763E-02
  1.611407516E-02
  1.661538822E-02
  1.708020645E-02
  1.751157638E-02
  1.791221133E-02
  1.828455363E-02
  1.863081893E-02
  1.895302893E-02
  1.925303633E-02
  1.953254458E-02
  1.979312392E-02
  2.003622485E-02
  2.026318963E-02
  2.047526237E-02
  2.067359793E-02
  2.085926990E-02
  2.103327794E-02
  2.119655438E-02
  2.134997046E-02
  2.149434210E-02
  2.163043553E-02
  2.175897264E-02
  2.188063643E-02
  2.199607660E-02
  2.210591559E-02
  2.221075534E-02
  2.231118542E-02
  2.240779298E-02
  2.250117603E-02
  2.259196140E-02
  2.268083047E-02
  2.276855726E-02
  2.285606691E-02
  2.294452881E-02
  2.303551118E-02
  2.313127055E-02
  3.548358427E-04
  4.828087363E-03
  7.680748590E-03
  9.744931208E-03
  1.136634222E-02
  1.271057680E-02
  1.386575905E-02
  1.488271375E-02
  1.579272697E-02
  1.661617502E-02
  1.736703209E-02
  1.805535913E-02
  1.868873750E-02
  1.927312253E-02
  1.981336540E-02
  2.031353990E-02
  2.077715144E-02
  2.120727403E-02
  2.160664220E-02
  2.197771460E-02
  2.232271933E-02
  2.264368742E-02
  2.294247835E-02
  2.322080031E-02
  2.348022664E-02
  2.372220959E-02
  2.394809217E-02
  2.415911839E-02
  2.435644240E-02
  2.454113664E-02
  2.471419924E-02
  2.487656079E-02
  2.502909058E-02
  2.517260252E-02
  2.530786068E-02
  2.543558475E-02
  2.555645540E-02
  2.567111987E-02
  2.578019789E-02
  2.588428833E-02
  2.598397706E-02
  2.607984663E-02
  2.617248887E-02
  2.626252208E-02
  2.635061534E-02
  2.643752421E-02
  2.652414531E-02
  2.661160252E-02
  2.670138881E-02
  2.679563074E-02
  4.165502515E-03
  8.785695948E-03
  1.170274049E-02
  1.380047028E-02
  1.544145594E-02
  1.679798644E-02
  1.796124587E-02
  1.898361498E-02
  1.989724048E-02
  2.072300941E-02
  2.147521849E-02
  2.216414413E-02
  2.279751955E-02
  2.338141225E-02
  2.392076000E-02
  2.441970577E-02
  2.488181193E-02
  2.531020039E-02
  2.570764666E-02
  2.607664480E-02
  2.641945372E-02
  2.673813137E-02
  2.703456072E-02
  2.731047045E-02
  2.756745164E-02
  2.780697189E-02
  2.803038725E-02
  2.823895280E-02
  2.843383184E-02
  2.861610428E-02
  2.878677413E-02
  2.894677647E-02
  2.909698377E-02
  2.923821196E-02
  2.937122604E-02
  2.949674568E-02
  2.961545067E-02
  2.972798654E-02
  2.983497058E-02
  2.993699854E-02
  3.003465243E-02
  3.012851023E-02
  3.021915835E-02
  3.030720859E-02
  3.039332202E-02
  3.047824388E-02
  3.056285670E-02
  3.064826351E-02
  3.073592372E-02
  3.082790837E-02
  8.361679927E-03
  1.312144844E-02
  1.610787681E-02
  1.824747045E-02
  1.991679561E-02
  2.129386715E-02
  2.247263107E-02
  2.350698499E-02
  2.442999940E-02
  2.526317151E-02
  2.602122677E-02
  2.671475722E-02
  2.735173625E-02
  2.793841873E-02
  2.847989111E-02
  2.898041598E-02
  2.944365280E-02
  2.987280294E-02
  3.027070727E-02
  3.063991391E-02
  3.098272658E-02
  3.130124048E-02
  3.159736966E-02
  3.187286864E-02
  3.212935011E-02
  3.236829958E-02
  3.259108803E-02
  3.279898285E-02
  3.299315747E-02
  3.317470005E-02
  3.334462123E-02
  3.350386131E-02
  3.365329675E-02
  3.379374634E-02
  3.392597695E-02
  3.405070912E-02
  3.416862255E-02
  3.428036162E-02
  3.438654132E-02
  3.448775362E-02
  3.458457488E-02
  3.467757488E-02
  3.476732822E-02
  3.485442961E-02
  3.493951511E-02
  3.502329286E-02
  3.510658921E-02
  3.519042019E-02
  3.527610658E-02
  3.536546986E-02
  1.312948176E-02
  1.800655459E-02
  2.104909743E-02
  2.322055610E-02
  2.491035354E-02
  2.630178407E-02
  2.749126113E-02
  2.853395886E-02
  2.946366580E-02
  3.030231379E-02
  3.106490947E-02
  3.176223812E-02
  3.240241317E-02
  3.299179551E-02
  3.353555462E-02
  3.403801969E-02
  3.450290453E-02
  3.493345530E-02
  3.533255003E-02
  3.570276773E-02
  3.604643793E-02
  3.636567732E-02
  3.666241793E-02
  3.693842928E-02
  3.719533663E-02
  3.743463603E-02
  3.765770730E-02
  3.786582530E-02
  3.806016976E-02
  3.824183417E-02
  3.841183370E-02
  3.857111246E-02
  3.872055011E-02
  3.886096802E-02
  3.899313509E-02
  3.911777326E-02
  3.923556289E-02
  3.934714821E-02
  3.945314286E-02
  3.955413597E-02
  3.965069893E-02
  3.974339347E-02
  3.983278165E-02
  3.991943895E-02
  4.000397203E-02
  4.008704394E-02
  4.016941101E-02
  4.025197886E-02
  4.033588985E-02
  4.042266424E-02
  1.841686485E-02
  2.341449709E-02
  2.651267270E-02
  2.871568344E-02
  3.042594341E-02
  3.183186989E-02
  3.303222610E-02
  3.408339366E-02
  3.501984127E-02
  3.586391550E-02
  3.663089479E-02
  3.733175468E-02
  3.797474966E-02
  3.856635051E-02
  3.911181554E-02
  3.961554777E-02
  4.008132358E-02
  4.051244281E-02
  4.091182988E-02
  4.128210412E-02
  4.162563008E-02
  4.194455495E-02
  4.224083724E-02
  4.251626952E-02
  4.277249694E-02
  4.301103279E-02
  4.323327169E-02
  4.344050119E-02
  4.363391182E-02
  4.381460622E-02
  4.398360722E-02
  4.414186524E-02
  4.429026503E-02
  4.442963197E-02
  4.456073788E-02
  4.468430661E-02
  4.480101939E-02
  4.491152019E-02
  4.501642112E-02
  4.511630822E-02
  4.521174781E-02
  4.530329385E-02
  4.539149686E-02
  4.547691531E-02
  4.556013069E-02
  4.564176841E-02
  4.572252761E-02
  4.580322518E-02
  4.588486228E-02
  4.596872732E-02
  2.422996221E-02
  2.934101527E-02
  3.249790321E-02
  3.473813563E-02
  3.647482866E-02
  3.790078645E-02
  3.911690157E-02
  4.018073185E-02
  4.112746618E-02
  4.197993050E-02
  4.275374438E-02
  4.346013939E-02
  4.410757025E-02
  4.470266930E-02
  4.525082838E-02
  4.575656291E-02
  4.622374513E-02
  4.665575751E-02
  4.705559622E-02
  4.742594325E-02
  4.776921803E-02
  4.808761603E-02
  4.838313809E-02
  4.865761402E-02
  4.891272160E-02
  4.915000265E-02
  4.937087660E-02
  4.957665250E-02
  4.976853932E-02
  4.994765540E-02
  5.011503673E-02
  5.027164459E-02
  5.041837245E-02
  5.055605237E-02
  5.068546098E-02
  5.080732505E-02
  5.092232685E-02
  5.103110937E-02
  5.113428157E-02
  5.123242370E-02
  5.132609306E-02
  5.141583037E-02
  5.150216719E-02
  5.158563494E-02
  5.166677644E-02
  5.174616120E-02
  5.182440657E-02
  5.190220769E-02
  5.198038121E-02
  5.205992947E-02
  3.068171280E-02
  3.588004666E-02
  3.908813673E-02
  4.136336407E-02
  4.312624739E-02
  4.457289861E-02
  4.580591732E-02
  4.688385020E-02
  4.784251551E-02
  4.870517144E-02
  4.948775286E-02
  5.020173195E-02
  5.085575334E-02
  5.145660272E-02
  5.200979782E-02
  5.251995844E-02
  5.299104406E-02
  5.342651031E-02
  5.382941500E-02
  5.420249207E-02
  5.454820488E-02
  5.486878600E-02
  5.516626780E-02
  5.544250676E-02
  5.569920337E-02
  5.593791878E-02
  5.616008892E-02
  5.636703690E-02
  5.655998376E-02
  5.674005811E-02
  5.690830466E-02
  5.706569206E-02
  5.721311983E-02
  5.735142488E-02
  5.748138733E-02
  5.760373606E-02
  5.771915377E-02
  5.782828185E-02
  5.793172493E-02
  5.803005539E-02
  5.812381768E-02
  5.821353267E-02
  5.829970205E-02
  5.838281281E-02
  5.846334194E-02
  5.854176129E-02
  5.861854273E-02
  5.869416346E-02
  5.876911086E-02
  5.884388535E-02
  3.785573012E-02
  4.312608531E-02
  4.637270630E-02
  4.867305331E-02
  5.045442447E-02
  5.191574320E-02
  5.316095073E-02
  5.424930383E-02
  5.521703045E-02
  5.608764483E-02
  5.687725491E-02
  5.759745882E-02
  5.825699902E-02
  5.886274108E-02
  5.942027045E-02
  5.993426567E-02
  6.040873799E-02
  6.084718901E-02
  6.125271762E-02
  6.162809450E-02
  6.197581601E-02
  6.229814427E-02
  6.259713824E-02
  6.287467821E-02
  6.313248610E-02
  6.337214222E-02
  6.359509972E-02
  6.380269706E-02
  6.399616900E-02
  6.417665626E-02
  6.434521426E-02
  6.450282089E-02
  6.465038359E-02
  6.478874573E-02
  6.491869247E-02
  6.504095605E-02
  6.515622072E-02
  6.526512709E-02
  6.536827622E-02
  6.546623318E-02
  6.555953007E-02
  6.564866853E-02
  6.573412125E-02
  6.581633233E-02
  6.589571579E-02
  6.597265141E-02
  6.604747642E-02
  6.612047129E-02
  6.619183647E-02
  6.626165598E-02
  4.568226094E-02
  5.101767404E-02
  5.430370178E-02
  5.663298265E-02
  5.843734318E-02
  5.991763677E-02
  6.117882747E-02
  6.228079990E-02
  6.326021003E-02
  6.414088650E-02
  6.493918087E-02
  6.566688702E-02
  6.633290875E-02
  6.694424685E-02
  6.750660152E-02
  6.802474938E-02
  6.850278615E-02
  6.894428649E-02
  6.935241272E-02
  6.972999077E-02
  7.007956528E-02
  7.040344062E-02
  7.070371275E-02
  7.098229450E-02
  7.124093629E-02
  7.148124348E-02
  7.170469118E-02
  7.191263705E-02
  7.210633256E-02
  7.228693290E-02
  7.245550590E-02
  7.261303992E-02
  7.276045099E-02
  7.289858924E-02
  7.302824467E-02
  7.315015236E-02
  7.326499698E-02
  7.337341691E-02
  7.347600746E-02
  7.357332351E-02
  7.366588105E-02
  7.375415745E-02
  7.383858980E-02
  7.391957073E-02
  7.399744023E-02
  7.407247217E-02
  7.414485308E-02
  7.421465087E-02
  7.428177084E-02
  7.434589841E-02
  5.429431658E-02
  5.965452677E-02
  6.296728255E-02
  6.532040439E-02
  6.714533127E-02
  6.864327774E-02
  6.991963579E-02
  7.103466295E-02
  7.202532370E-02
  7.291570145E-02
  7.372236032E-02
  7.445727333E-02
  7.512949662E-02
  7.574616135E-02
  7.631307984E-02
  7.683512550E-02
  7.731647790E-02
  7.776078446E-02
  7.817127086E-02
  7.855081828E-02
  7.890201963E-02
  7.922722153E-02
  7.952855693E-02
  7.980797110E-02
  8.006724287E-02
  8.030800246E-02
  8.053174673E-02
  8.073985226E-02
  8.093358689E-02
  8.111411992E-02
  8.128253108E-02
  8.143981859E-02
  8.158690636E-02
  8.172465038E-02
  8.185384436E-02
  8.197522473E-02
  8.208947479E-02
  8.219722821E-02
  8.229907139E-02
  8.239554485E-02
  8.248714285E-02
  8.257431103E-02
  8.265744096E-02
  8.273686062E-02
  8.281281882E-02
  8.288546202E-02
  8.295480087E-02
  8.302066567E-02