TITLE     = ""
VARIABLES = "x"
"y"
"z"
"u"
"v"
"w"
"rho"
"rhosN2"
"rhosO2"
"rhosNO"
"rhosNO+"
"rhosN2+"
"rhosO2+"
"rhosN"
"rhosO"
"rhosN+"
"rhosO+"
"rhose"
"csN2"
"csO2"
"csNO"
"csNO+"
"csN2+"
"csO2+"
"csN"
"csO"
"csN+"
"csO+"
"cse"
"t"
"tv"
"p"
"m"
"kt"
"kv"
"mu"
ZONE T="61x50"
 STRANDID=0, SOLUTIONTIME=0
 I=96, J=1, K=1, ZONETYPE=Ordered
 DATAPACKING=POINT
 DT=(DOUBLE DOUBLE SINGLE SINGLE SINGLE SINGLE SINGLE SINGLE SINGLE SINGLE SINGLE SINGLE SINGLE SINGLE SINGLE SINGLE SINGLE SINGLE SINGLE SINGLE SINGLE SINGLE SINGLE SINGLE SINGLE SINGLE SINGLE SINGLE SINGLE SINGLE SINGLE SINGLE SINGLE SINGLE SINGLE SINGLE )
 -2.498044074E-002 3.701314854E-004 1.616028931E-005 7.650005859E+003 -1.200958937E-001 -5.243500229E-003 7.195498620E-005 5.518947364E-005 1.676551437E-005 5.530959709E-018 6.579675317E-019 3.628031486E-019 3.915963493E-019 6.602651602E-017 1.087132245E-016 0.000000000E+000 1.934981860E-019 3.248254684E-023 7.669999599E-001 2.330000252E-001 7.686693892E-014 9.144154346E-015 5.042084744E-015 5.442240473E-015 9.176086540E-013 1.510850473E-012 0.000000000E+000 2.689155966E-015 4.514287011E-019 2.168341827E+002 2.168460083E+002 4.496425152E+000 2.586392975E+001 2.230412699E-002 1.081550090E-005 1.523046467E-005
 -2.452882001E-002 3.701238926E-004 1.615995825E-005 7.650007324E+003 -1.371330321E-001 -5.987357814E-003 7.195340004E-005 5.518825128E-005 1.676514876E-005 3.124591053E-017 3.716957589E-018 2.049555862E-018 2.212221136E-018 3.729989257E-016 6.141465853E-016 0.000000000E+000 1.093136447E-018 1.835011508E-022 7.669999003E-001 2.330000699E-001 4.343016289E-013 5.166374801E-014 2.848774073E-014 3.074870545E-014 5.184488255E-012 8.536313149E-012 0.000000000E+000 1.519401941E-014 2.550569026E-018 2.168327026E+002 2.168460083E+002 4.496294975E+000 2.586402321E+001 2.230400965E-002 1.081544724E-005 1.523038372E-005
 -2.407719929E-002 3.701152940E-004 1.615958354E-005 7.650009277E+003 -1.541702151E-001 -6.731217261E-003 7.195181388E-005 5.518703256E-005 1.676478132E-005 5.696085474E-017 6.775947595E-018 3.736308239E-018 4.032845871E-018 6.799713156E-016 1.119579880E-015 0.000000000E+000 1.992774462E-018 3.345197359E-022 7.669998407E-001 2.330001295E-001 7.917362512E-013 9.418333490E-014 5.193339587E-014 5.605516661E-014 9.451366773E-012 1.556177583E-011 0.000000000E+000 2.769888031E-014 4.649709195E-018 2.168312073E+002 2.168460236E+002 4.496165276E+000 2.586411858E+001 2.230389416E-002 1.081539267E-005 1.523030278E-005
 -2.362557857E-002 3.701056896E-004 1.615916335E-005 7.650010742E+003 -1.712074280E-001 -7.475078106E-003 7.195022772E-005 5.518581020E-005 1.676441570E-005 8.267580225E-017 9.834936774E-018 5.423060616E-018 5.853470399E-018 9.869436260E-016 1.625013228E-015 0.000000000E+000 2.892412581E-018 4.855383083E-022 7.669998407E-001 2.330001742E-001 1.149170819E-012 1.367029184E-013 7.537904762E-014 8.136162100E-014 1.371824529E-011 2.258723764E-011 0.000000000E+000 4.020374122E-014 6.748848745E-018 2.168297272E+002 2.168460236E+002 4.496035099E+000 2.586421204E+001 2.230377682E-002 1.081533901E-005 1.523022183E-005
 -2.319283167E-002 3.700953801E-004 1.615871406E-005 7.650012207E+003 -1.928299814E-001 -8.419138379E-003 7.194822683E-005 5.518427497E-005 1.676395004E-005 3.840289094E-016 4.568249855E-017 2.518996907E-017 2.718925799E-017 4.584329928E-015 7.548152844E-015 0.000000000E+000 1.343543643E-017 2.255312383E-021 7.669997811E-001 2.330001742E-001 5.338455372E-012 6.350406312E-013 3.501703322E-013 3.779627707E-013 6.372759959E-011 1.049282397E-010 1.999339646E-036 1.867684338E-013 3.135150510E-017 2.168270874E+002 2.168461456E+002 4.495855331E+000 2.586437607E+001 2.230356634E-002 1.081526716E-005 1.523007631E-005
 -2.276008478E-002 3.700835470E-004 1.615819747E-005 7.650014648E+003 -2.255357057E-001 -9.847101755E-003 7.194521459E-005 5.518197213E-005 1.676324246E-005 1.256903932E-015 1.495148412E-016 8.244481372E-017 8.898848735E-017 1.500416714E-014 2.470455278E-014 0.000000000E+000 4.397329856E-017 7.381462518E-021 7.669999003E-001 2.330000997E-001 1.747290333E-011 2.078486688E-012 1.146110117E-012 1.237077172E-012 2.085810552E-010 3.434313944E-010 6.088770881E-036 6.112967120E-013 1.026137138E-016 2.168218689E+002 2.168465271E+002 4.495559216E+000 2.586469460E+001 2.230315469E-002 1.081515438E-005 1.522979073E-005
 -2.232733790E-002 3.700698638E-004 1.615759902E-005 7.650016602E+003 -2.582415342E-001 -1.127506979E-002 7.194220962E-005 5.517967293E-005 1.676253487E-005 2.129778796E-015 2.533471575E-016 1.396996484E-016 1.507877068E-016 2.542400393E-014 4.186095101E-014 0.000000000E+000 7.451115903E-017 1.250761225E-020 7.669999599E-001 2.330000252E-001 2.960734782E-011 3.521932745E-012 1.942049820E-012 2.096191493E-012 3.534345039E-010 5.819345006E-010 1.017753326E-035 1.035824963E-012 1.738759059E-016 2.168166656E+002 2.168469086E+002 4.495263577E+000 2.586501122E+001 2.230274118E-002 1.081504161E-005 1.522950606E-005
 -2.189459101E-002 3.700543305E-004 1.615692236E-005 7.650019043E+003 -2.909474969E-001 -1.270304341E-002 7.193919737E-005 5.517737009E-005 1.676182910E-005 3.002653447E-015 3.571794737E-016 1.969544699E-016 2.125869130E-016 3.584383563E-014 5.901734586E-014 0.000000000E+000 1.050490063E-016 1.763376037E-020 7.670000792E-001 2.329999357E-001 4.174179405E-011 4.965378369E-012 2.737989306E-012 2.955305488E-012 4.982879109E-010 8.204376067E-010 1.426562696E-035 1.460353106E-012 2.451380847E-016 2.168114624E+002 2.168472900E+002 4.494967461E+000 2.586532974E+001 2.230232768E-002 1.081492883E-005 1.522922048E-005
 -2.147743285E-002 3.700376104E-004 1.615619112E-005 7.650019531E+003 -3.222913742E-001 -1.407154556E-002 7.193643978E-005 5.517525278E-005 1.676118700E-005 2.446068691E-014 2.909645630E-015 1.604445362E-015 1.731796660E-015 2.919941307E-013 4.807727567E-013 3.650788136E-036 8.557753331E-016 1.436494776E-019 7.670000196E-001 2.329999655E-001 3.400815185E-010 4.045334900E-011 2.230690459E-011 2.407749694E-011 4.059649505E-009 6.684274023E-009 5.077486135E-032 1.189800602E-011 1.997185529E-015 2.168101044E+002 2.168604431E+002 4.494767189E+000 2.586541176E+001 2.230222523E-002 1.081803839E-005 1.522914681E-005
 -2.106027468E-002 3.700191797E-004 1.615538713E-005 7.650019043E+003 -3.536892533E-001 -1.544240769E-002 7.193371130E-005 5.517315367E-005 1.676055581E-005 5.192438344E-014 6.176478278E-015 3.405855530E-015 3.676195836E-015 6.198343163E-013 1.020566878E-012 8.356250984E-036 1.816609327E-015 3.049336446E-019 7.669999599E-001 2.330000103E-001 7.219213005E-010 8.587355826E-011 4.735270162E-011 5.111133392E-011 8.617755398E-009 1.418927020E-008 1.161971934E-031 2.525690247E-011 4.239590060E-015 2.168098145E+002 2.168773346E+002 4.494590759E+000 2.586542892E+001 2.230220847E-002 1.082208473E-005 1.522913135E-005
 -2.064311651E-002 3.699990368E-004 1.615450674E-005 7.650019043E+003 -3.850873113E-001 -1.681327634E-002 7.193098281E-005 5.517105456E-005 1.675992280E-005 7.938807489E-014 9.443310290E-015 5.207265486E-015 5.620594695E-015 9.476744476E-013 1.560360998E-012 1.306170953E-035 2.777443057E-015 4.662178116E-019 7.669999003E-001 2.330000699E-001 1.103761083E-009 1.312937675E-010 7.239848998E-011 7.814516395E-011 1.317586129E-008 2.169426416E-008 1.816194608E-031 3.861579806E-011 6.481994591E-015 2.168095245E+002 2.168942261E+002 4.494414330E+000 2.586544609E+001 2.230219170E-002 1.082613107E-005 1.522911589E-005
 -2.024044884E-002 3.699779773E-004 1.615358815E-005 7.650014160E+003 -4.151153862E-001 -1.812432893E-002 7.192839257E-005 5.516906094E-005 1.675931526E-005 3.587411130E-013 4.267213752E-014 2.353065659E-014 2.539844386E-014 4.282365695E-012 7.050986097E-012 3.025537540E-029 1.255095813E-014 2.106751265E-018 7.669997811E-001 2.330000252E-001 4.988106372E-009 5.933336045E-010 3.271813931E-010 3.531520354E-010 5.954403903E-008 9.804025325E-008 4.206280795E-025 1.745144584E-010 2.929326568E-014 2.168400116E+002 2.171264038E+002 4.494884491E+000 2.586361313E+001 2.230465040E-002 1.088606678E-005 1.523078481E-005
 -1.983778170E-002 3.699553439E-004 1.615260044E-005 7.649999512E+003 -4.448770881E-001 -1.942375302E-002 7.192586054E-005 5.516710371E-005 1.675870953E-005 1.178567660E-012 1.401882218E-013 7.730409601E-014 8.344053801E-014 1.406866377E-011 2.316431942E-011 1.021984253E-028 4.123312003E-014 6.921204647E-018 7.669996619E-001 2.329998016E-001 1.638776403E-008 1.949290951E-009 1.074898837E-009 1.160225138E-009 1.956221354E-007 3.220955307E-007 1.420987968E-024 5.733387654E-010 9.623805388E-014 2.169362488E+002 2.178199310E+002 4.496722221E+000 2.585783005E+001 2.231239714E-002 1.106571654E-005 1.523605260E-005
 -1.943511456E-002 3.699311439E-004 1.615154360E-005 7.649984375E+003 -4.746389985E-001 -2.072318643E-002 7.192332123E-005 5.516515012E-005 1.675810381E-005 1.998394289E-012 2.377043061E-013 1.310775219E-013 1.414826237E-013 2.385495967E-011 3.927765058E-011 1.741387457E-028 6.991527854E-014 1.173565803E-017 7.669994831E-001 2.329995781E-001 2.778742036E-008 3.305248075E-009 1.822616280E-009 1.967298102E-009 3.317001926E-007 5.461507726E-007 2.421310138E-024 9.721630168E-010 1.631828353E-013 2.170324860E+002 2.185134583E+002 4.498559952E+000 2.585204697E+001 2.232014574E-002 1.124536630E-005 1.524132040E-005
 -1.903244742E-002 3.699053781E-004 1.615041765E-005 7.649969727E+003 -5.043721199E-001 -2.202136256E-002 7.192078920E-005 5.516319652E-005 1.675749991E-005 2.818593232E-012 3.352649647E-013 1.848755253E-013 1.995511910E-013 3.364572509E-011 5.539833522E-011 2.502646777E-028 9.861055928E-014 1.655231088E-017 7.669993639E-001 2.329993546E-001 3.919224767E-008 4.661823816E-009 2.570674562E-009 2.774738661E-009 4.678402945E-007 7.703080769E-007 3.479793248E-024 1.371169400E-009 2.301581506E-013 2.171287689E+002 2.192073212E+002 4.500398636E+000 2.584626007E+001 2.232789621E-002 1.142510973E-005 1.524659001E-005
 -1.864349534E-002 3.698790573E-004 1.614926805E-005 7.649618652E+003 -5.309661627E-001 -2.318248525E-002 7.192898192E-005 5.516923557E-005 1.675897875E-005 2.332994041E-011 2.774953010E-012 1.530213239E-012 1.651693973E-012 2.784861231E-010 4.585338775E-010 1.216811340E-024 8.162111937E-013 1.370033441E-016 7.669959664E-001 2.329933941E-001 3.241597142E-007 3.855680220E-008 2.126166621E-008 2.294958712E-008 3.869447028E-006 6.371134987E-006 1.690537937E-020 1.134090954E-008 1.903603794E-012 2.195037231E+002 2.301108093E+002 4.550216675E+000 2.571042824E+001 2.251490951E-002 1.743343819E-005 1.537507160E-005
 -1.825456177E-002 3.698513829E-004 1.614806024E-005 7.649266602E+003 -5.576192737E-001 -2.434618399E-002 7.193721831E-005 5.517530735E-005 1.676046668E-005 4.392016612E-011 5.224008292E-012 2.880716499E-012 3.109415069E-012 5.242668522E-010 8.632178861E-010 2.438812595E-024 1.536566339E-012 2.579168738E-016 7.669925690E-001 2.329874188E-001 6.102238217E-007 7.258200441E-008 4.002447795E-008 4.320199309E-008 7.284127150E-006 1.199349026E-005 3.388290117E-020 2.134894395E-008 3.583479216E-012 2.218878174E+002 2.410590973E+002 4.600226879E+000 2.557406616E+001 2.270264179E-002 2.346489055E-005 1.550404886E-005
 -1.786562820E-002 3.698223520E-004 1.614679240E-005 7.648914063E+003 -5.842725635E-001 -2.550989017E-002 7.194544742E-005 5.518137550E-005 1.676195461E-005 6.451039009E-011 7.673062706E-012 4.231219975E-012 4.567136166E-012 7.700475257E-010 1.267901895E-009 3.660813949E-024 2.256921429E-012 3.788304035E-016 7.669891715E-001 2.329814285E-001 8.962878724E-007 1.066072102E-007 5.878728260E-008 6.345439374E-008 1.069880636E-005 1.761584463E-005 5.086042458E-020 3.135697924E-008 5.263354856E-012 2.242719269E+002 2.520073853E+002 4.650237083E+000 2.543770409E+001 2.289037593E-002 2.949634290E-005 1.563302612E-005
 -1.748953609E-002 3.697935169E-004 1.614553366E-005 7.645136719E+003 -5.885421634E-001 -2.569630556E-002 7.201106928E-005 5.522865467E-005 1.677222645E-005 3.098530876E-010 3.685322533E-011 2.032254399E-011 2.193616816E-011 3.698553463E-009 6.089780236E-009 2.075744896E-017 1.084009531E-011 1.819521215E-015 7.669470310E-001 2.329121679E-001 4.283883754E-006 5.095154165E-007 2.809699708E-007 3.032791653E-007 5.113446605E-005 8.419444930E-005 2.865643378E-013 1.498700613E-007 2.515584963E-011 2.523665161E+002 2.839064331E+002 5.241658688E+000 2.444658661E+001 2.483967133E-002 1.191685951E-004 1.697232256E-005
 -1.711366182E-002 3.697646291E-004 1.614427129E-005 7.640350098E+003 -5.862221718E-001 -2.559501305E-002 7.209362229E-005 5.528809925E-005 1.678509580E-005 6.213531356E-010 7.390153073E-011 4.075274840E-011 4.398866688E-011 7.416709469E-009 1.221184931E-008 4.653512985E-017 2.173762906E-011 3.648681665E-015 7.668935061E-001 2.328242660E-001 8.584477655E-006 1.021007165E-006 5.630309943E-007 6.077376611E-007 1.024676094E-004 1.687162148E-004 6.424593930E-013 3.003222560E-007 5.040937806E-011 2.880297546E+002 3.220615234E+002 5.992455006E+000 2.320302010E+001 2.730794065E-002 2.334312885E-004 1.866819548E-005
 -1.673778762E-002 3.697358374E-004 1.614301436E-005 7.635563477E+003 -5.839022398E-001 -2.549372055E-002 7.217617531E-005 5.534754018E-005 1.679796333E-005 9.328531281E-010 1.109498327E-010 6.118294760E-011 6.604115865E-011 1.113486459E-008 1.833391750E-008 7.231281736E-017 3.263515846E-011 5.477841691E-015 7.668399215E-001 2.327363789E-001 1.288507065E-005 1.532498914E-006 8.450919609E-007 9.121961284E-007 1.538007491E-004 2.532379585E-004 9.983546108E-013 4.507744222E-007 7.566290650E-011 3.236929626E+002 3.602166443E+002 6.743251324E+000 2.195945358E+001 2.977620810E-002 3.476939455E-004 2.036406840E-005
 -1.637338083E-002 3.697110142E-004 1.614193206E-005 7.613887207E+003 -4.571465850E-001 -1.995944977E-002 7.245034794E-005 5.553913434E-005 1.683111986E-005 2.389043186E-009 2.904366192E-010 1.598855492E-010 1.725299209E-010 2.909352048E-008 4.790378227E-008 2.262795333E-011 5.942297349E-011 1.432267323E-014 7.665877938E-001 2.323219627E-001 3.252710667E-005 3.953405212E-006 2.176391718E-006 2.348516546E-006 3.960270260E-004 6.520761526E-004 3.047613291E-007 8.125959994E-007 1.949617690E-010 4.893009644E+002 4.226163635E+002 1.031950855E+001 1.981760979E+001 3.832950443E-002 1.186986454E-003 2.613664583E-005
 -1.601026605E-002 3.696938183E-004 1.614118082E-005 7.583201172E+003 -2.629272938E-001 -1.147965249E-002 7.282714796E-005 5.580154539E-005 1.687520671E-005 4.455578129E-009 5.458488661E-010 3.003114146E-010 3.240283319E-010 5.464316644E-008 8.997270129E-008 5.725292809E-011 9.475495388E-011 2.690720266E-014 7.662297487E-001 2.317334712E-001 6.035108527E-005 7.392338375E-006 4.067117970E-006 4.388326033E-006 7.400333416E-004 1.218501828E-003 7.711111607E-007 1.288141334E-006 3.644028412E-010 7.242063599E+002 4.983495789E+002 1.540215111E+001 1.718370819E+001 5.013878271E-002 2.411713125E-003 3.409118654E-005
 -1.564715424E-002 3.696858716E-004 1.614083340E-005 7.552515625E+003 -6.870999187E-002 -2.999942983E-003 7.320394798E-005 5.606395644E-005 1.691929356E-005 6.522096196E-009 8.012590036E-010 4.407361420E-010 4.755254523E-010 8.019259923E-008 1.320412650E-007 9.187760275E-011 1.300866498E-010 3.949162706E-014 7.658717036E-001 2.311449796E-001 8.817483467E-005 1.083124243E-005 5.957829217E-006 6.428118468E-006 1.084036776E-003 1.784922788E-003 1.237457013E-006 1.763682803E-006 5.338425257E-010 9.591098633E+002 5.740821533E+002 2.048475075E+001 1.454983139E+001 6.194796413E-002 3.636429785E-003 4.204566358E-005
 -1.529265833E-002 3.696972687E-004 1.614133180E-005 7.473395996E+003 5.421893001E-001 2.367249504E-002 7.412375999E-005 5.669668826E-005 1.701407382E-005 1.211166900E-008 1.502347580E-009 8.267017071E-010 8.913551008E-010 1.501196039E-007 2.471373932E-007 2.017636336E-010 2.101120944E-010 7.404466580E-014 7.649520040E-001 2.296342403E-001 1.588136511E-004 1.969184086E-005 1.083570442E-005 1.168344988E-005 1.967802644E-003 3.239557380E-003 2.629485607E-006 2.771327445E-006 9.705317661E-010 1.538066895E+003 6.864790039E+002 3.398158646E+001 1.215891552E+001 8.464745432E-002 7.626948413E-003 5.682036135E-005
 -1.494265754E-002 3.697428904E-004 1.614332359E-005 7.367238281E+003 1.386067152E+000 6.051699072E-002 7.534689212E-005 5.753628648E-005 1.713720667E-005 1.966772523E-008 2.452180903E-009 1.349710899E-009 1.454719345E-009 2.448150838E-007 4.029927823E-007 3.536566873E-010 3.150797678E-010 1.208590248E-013 7.637187839E-001 2.276086807E-001 2.533545776E-004 3.157888932E-005 1.738106403E-005 1.873378096E-005 3.152872436E-003 5.190012045E-003 4.538253506E-006 4.075977813E-006 1.556403673E-009 2.309114014E+003 8.193837891E+002 5.217528152E+001 9.901386261E+000 1.134310737E-001 1.316102315E-002 7.540595107E-005
 -1.459269309E-002 3.698295489E-004 1.614710709E-005 7.261091797E+003 2.229853392E+000 9.735749662E-002 7.656989328E-005 5.837580102E-005 1.726032497E-005 2.722299364E-008 3.401914972E-009 1.872665578E-009 2.018024858E-009 3.395006445E-007 5.588318572E-007 5.055338370E-010 4.200365611E-010 1.676685049E-013 7.624856830E-001 2.255833447E-001 3.478856233E-004 4.346469723E-005 2.392573879E-005 2.578337626E-005 4.337818362E-003 7.140262518E-003 6.446820862E-006 5.380492894E-006 2.142214406E-009 3.080080322E+003 9.522747192E+002 7.036708069E+001 7.644092560E+000 1.422116756E-001 1.869452000E-002 9.398959810E-005
 -1.424569415E-002 3.699775975E-004 1.615357178E-005 7.058795410E+003 3.850262880E+000 1.681060940E-001 7.919251220E-005 6.017663327E-005 1.752565549E-005 4.302792789E-008 5.436988193E-009 2.995049098E-009 3.224341905E-009 5.421421747E-007 8.919187735E-007 8.340668156E-010 6.427751664E-010 2.680410147E-013 7.601988316E-001 2.218310982E-001 5.193385296E-004 6.555362052E-005 3.610871499E-005 3.887679486E-005 6.537117064E-003 1.075524744E-002 1.002848785E-005 7.780193300E-006 3.231679147E-009 4.387486328E+003 1.167217285E+003 1.068247375E+002 6.211860657E+000 1.847346723E-001 2.924890257E-002 1.199377803E-004
 -1.390943768E-002 3.702099707E-004 1.616371628E-005 6.825869629E+003 5.710402966E+000 2.493215650E-001 8.227009675E-005 6.228999700E-005 1.783727930E-005 6.150384024E-008 7.824634274E-009 4.312205260E-009 4.639534978E-009 7.798474826E-007 1.282565449E-006 1.220059276E-009 9.037245396E-010 3.858154573E-013 7.575782537E-001 2.175320834E-001 7.150309393E-004 9.087529179E-005 5.007882282E-005 5.388500722E-005 9.057713673E-003 1.489739306E-002 1.414133476E-005 1.052613970E-005 4.480749105E-009 5.860843262E+003 1.407115723E+003 1.491558685E+002 5.130518436E+000 2.312577069E-001 4.140325263E-002 1.479419734E-004
 -1.357337709E-002 3.705434732E-004 1.617827729E-005 6.593079590E+003 7.569521427E+000 3.304924369E-001 8.534588414E-005 6.440212746E-005 1.814872121E-005 7.996895590E-008 1.021088547E-008 5.628591815E-009 6.053901380E-009 1.017413865E-006 1.672984013E-006 1.605826028E-009 1.164521701E-009 5.035211072E-013 7.549592257E-001 2.132355720E-001 9.106089710E-004 1.161821710E-004 6.404076703E-005 6.888444477E-005 1.157683693E-002 1.903711818E-002 1.825177605E-005 1.327048449E-005 5.729089203E-009 7.333338379E+003 1.646873901E+003 1.914622650E+002 4.049808502E+000 2.777535319E-001 5.355049670E-002 1.759298029E-004
 -1.324131735E-002 3.710106911E-004 1.619867726E-005 6.221609863E+003 1.035894489E+001 4.522812963E-001 9.220198990E-005 6.913801917E-005 1.888934639E-005 1.174367199E-007 1.527640237E-008 8.422469833E-009 9.039058391E-009 1.520926389E-006 2.499370112E-006 2.431122414E-009 1.715572684E-009 7.532418699E-013 7.509214282E-001 2.066184878E-001 1.198031241E-003 1.553306502E-004 8.563677693E-005 9.194127051E-005 1.546695363E-002 2.541999146E-002 2.466891965E-005 1.749103285E-005 7.659088475E-009 9.202805664E+003 2.065639648E+003 2.700770569E+002 3.438340187E+000 3.361158669E-001 6.990923733E-002 2.079411352E-004
 -1.291944513E-002 3.716407355E-004 1.622618402E-005 5.845601074E+003 1.314861488E+001 5.740809441E-001 9.927788778E-005 7.402714982E-005 1.965606862E-005 1.559204890E-007 2.049140946E-008 1.129878235E-008 1.211143896E-008 2.039257652E-006 3.350022325E-006 3.281106720E-009 2.282753320E-009 1.010325395E-012 7.468442321E-001 1.999372840E-001 1.487247995E-003 1.948708523E-004 1.074487809E-004 1.152185068E-004 1.939551160E-002 3.186523914E-002 3.115442814E-005 2.175207919E-005 9.608324802E-009 1.106162012E+004 2.492040039E+003 3.504271240E+002 2.897068739E+000 3.940865397E-001 8.625677973E-002 2.394609328E-004
 -1.259890905E-002 3.724754911E-004 1.626263111E-005 5.452403809E+003 1.609391022E+001 7.026753426E-001 1.077224952E-004 7.986107084E-005 2.056996709E-005 2.009168014E-007 2.673815125E-008 1.473842648E-008 1.576601782E-008 2.659195616E-006 4.366836038E-006 4.302075141E-009 2.960793832E-009 1.317783014E-012 7.425695062E-001 1.929345280E-001 1.784588094E-003 2.364085958E-004 1.303303725E-004 1.395246509E-004 2.351712249E-002 3.862378001E-002 3.798442049E-005 2.622045395E-005 1.165326857E-008 1.289257422E+004 2.957754395E+003 4.413257446E+002 2.385939360E+000 4.521687627E-001 1.028449610E-001 2.704266226E-004
 -1.229082958E-002 3.735383890E-004 1.630903716E-005 4.966104004E+003 1.959750366E+001 8.556455374E-001 1.239243138E-004 9.105000208E-005 2.231857252E-005 2.827459582E-007 3.882941257E-008 2.136900257E-008 2.271747057E-008 3.854659099E-006 6.324847163E-006 6.291768440E-009 4.266739406E-009 1.910576081E-012 7.372215986E-001 1.841857582E-001 2.124314895E-003 2.888200397E-004 1.590257161E-004 1.693914382E-004 2.868810855E-002 4.708448052E-002 4.669402551E-005 3.181543434E-005 1.421844509E-008 1.453583789E+004 3.642876221E+003 5.916167603E+002 2.055926085E+000 5.100277066E-001 1.205674261E-001 2.977405675E-004
 -1.198423167E-002 3.749334522E-004 1.636994784E-005 4.482145996E+003 2.308648872E+001 1.007977843E+000 1.400480687E-004 1.021850330E-004 2.405874875E-005 3.641810054E-007 5.086246446E-008 2.796765841E-008 2.963545498E-008 5.044367754E-006 8.273431376E-006 8.271882734E-009 5.566398453E-009 2.500515420E-012 7.318994403E-001 1.754790843E-001 2.462405246E-003 3.409791680E-004 1.875829039E-004 1.991144090E-004 3.383420035E-002 5.550444871E-002 5.536169920E-005 3.738348823E-005 1.677127059E-008 1.617118652E+004 4.324699219E+003 7.411839600E+002 1.727502227E+000 5.676079988E-001 1.382045597E-001 3.249229921E-004
 -1.167993449E-002 3.767354971E-004 1.644862641E-005 3.989569580E+003 2.667562485E+001 1.164682984E+000 1.622706768E-004 1.173542914E-004 2.618612234E-005 4.762886476E-007 6.936358687E-008 3.799952353E-008 3.984037988E-008 6.862219834E-006 1.122562662E-005 1.135764904E-008 7.551737902E-009 3.399108902E-012 7.260404229E-001 1.659659594E-001 2.790088532E-003 3.990850528E-004 2.189688821E-004 2.306071838E-004 3.952400759E-002 6.472215801E-002 6.516399299E-005 4.354406337E-005 1.958331453E-008 1.751033008E+004 5.095494141E+003 9.336806641E+002 1.443948865E+000 6.196658015E-001 1.574142426E-001 3.476294805E-004
 -1.138588786E-002 3.789871964E-004 1.654693733E-005 3.497377197E+003 3.014801788E+001 1.316290855E+000 1.919877541E-004 1.374701533E-004 2.877273982E-005 6.260879104E-007 9.592951500E-008 5.230737798E-008 5.412563908E-008 9.462798516E-006 1.542738573E-005 1.582371034E-008 1.039144770E-008 4.682196471E-012 7.196150422E-001 1.556187421E-001 3.096334171E-003 4.636258818E-004 2.533271909E-004 2.636790741E-004 4.579321295E-002 7.476952672E-002 7.622416160E-005 5.033706839E-005 2.266923715E-008 1.842812695E+004 5.964994629E+003 1.178078491E+003 1.226129889E+000 6.632241607E-001 1.782339811E-001 3.639104543E-004
 -1.109477137E-002 3.818686439E-004 1.667274410E-005 3.010095703E+003 3.359331894E+001 1.466716051E+000 2.214081906E-004 1.573851914E-004 3.133351856E-005 7.743919355E-007 1.222304036E-007 6.647248085E-008 6.826835630E-008 1.203743159E-005 1.958722351E-005 2.024521706E-008 1.320282905E-008 5.952482431E-012 7.132536769E-001 1.453747302E-001 3.399522742E-003 5.275229341E-004 2.873427584E-004 2.964209998E-004 5.199988186E-002 8.471667022E-002 8.717401943E-005 5.706232332E-005 2.572437907E-008 1.933676563E+004 6.825819336E+003 1.420036987E+003 1.010484219E+000 7.063478827E-001 1.988460273E-001 3.800289996E-004
 -1.080380808E-002 3.855442469E-004 1.683322444E-005 2.586840332E+003 3.648651505E+001 1.593035698E+000 2.613769902E-004 1.835581352E-004 3.355521767E-005 9.649895674E-007 1.678749015E-007 9.018886971E-008 8.982316047E-008 1.644763870E-005 2.645672612E-005 2.828764600E-008 1.807856798E-008 8.103142289E-012 7.058743834E-001 1.339351237E-001 3.602897516E-003 6.045220653E-004 3.261495731E-004 3.284048580E-004 5.933833867E-002 9.582369775E-002 1.012693829E-004 6.518709415E-005 2.927107978E-008 1.963041016E+004 7.680672363E+003 1.719383423E+003 8.505994081E-001 7.337838411E-001 2.234157026E-001 3.867553605E-004
 -1.052198822E-002 3.900388267E-004 1.702946247E-005 2.196031494E+003 3.901575089E+001 1.703464389E+000 3.032587992E-004 2.107893524E-004 3.560606638E-005 1.162323656E-006 2.178888110E-007 1.160262499E-007 1.129267346E-007 2.127001972E-005 3.392361032E-005 3.716335684E-008 2.342038385E-008 1.045039316E-011 6.984211802E-001 1.224952191E-001 3.770002630E-003 6.830366328E-004 3.651773150E-004 3.591618442E-004 6.678617001E-002 1.069307253E-001 1.158654122E-004 7.347676001E-005 3.285404304E-008 1.973053906E+004 8.506986328E+003 2.026586060E+003 7.124263644E-001 7.556593418E-001 2.484045178E-001 3.904562618E-004
 -1.024208418E-002 3.956655724E-004 1.727513154E-005 1.832285767E+003 4.137046432E+001 1.806273341E+000 3.461090673E-004 2.382532984E-004 3.726086288E-005 1.354849019E-006 2.733866893E-007 1.441205484E-007 1.366765900E-007 2.660406062E-005 4.200502008E-005 4.735523618E-008 2.942850408E-008 1.302757988E-011 6.907047629E-001 1.109914854E-001 3.902556375E-003 7.647150778E-004 4.047391994E-004 3.878056305E-004 7.450944930E-002 1.181204915E-001 1.316823182E-004 8.227108628E-005 3.653420322E-008 1.972031055E+004 9.295996094E+003 2.329754639E+003 5.855728984E-001 7.737403512E-001 2.725926638E-001 3.923663753E-004
 -9.964695201E-003 4.025330621E-004 1.757497375E-005 1.577658203E+003 4.246305466E+001 1.853976965E+000 3.940168535E-004 2.672899282E-004 3.724321505E-005 1.530667532E-006 3.536454187E-007 1.825154783E-007 1.637147591E-007 3.425104660E-005 5.290026093E-005 6.342006031E-008 3.842773211E-008 1.664814120E-011 6.816996932E-001 9.897468984E-002 3.888967214E-003 8.616955602E-004 4.474138550E-004 4.079558712E-004 8.357652277E-002 1.298965514E-001 1.530734735E-004 9.341620171E-005 4.070840021E-008 1.923474023E+004 9.940612305E+003 2.621820068E+003 5.048248768E-001 7.758557200E-001 2.938386202E-001 3.866054176E-004
 -9.690968985E-003 4.107180864E-004 1.793233969E-005 1.326398193E+003 4.356778717E+001 1.902210593E+000 4.412901471E-004 2.959419216E-004 3.722573820E-005 1.704156489E-006 4.328418868E-007 2.204021996E-007 1.903948288E-007 4.179682583E-005 6.365127774E-005 7.927232559E-008 4.730788206E-008 2.022078165E-011 6.728136539E-001 8.711688966E-002 3.875556169E-003 9.573930874E-004 4.895239836E-004 4.278393171E-004 9.252365679E-002 1.415168196E-001 1.741817105E-004 1.044139208E-004 4.482737737E-008 1.875559766E+004 1.057669824E+004 2.910017090E+003 4.251451492E-001 7.779432535E-001 3.148033619E-001 3.809207410E-004
 -9.411989420E-003 4.206060080E-004 1.836405499E-005 1.152348877E+003 4.393466187E+001 1.918228626E+000 4.862932838E-004 3.207295958E-004 3.540830585E-005 1.824412493E-006 5.304858632E-007 2.628731295E-007 2.103883929E-007 5.131192302E-005 7.585280400E-005 1.027595857E-007 5.971827477E-008 2.452591776E-011 6.620701551E-001 7.548235357E-002 3.779666498E-003 1.065421384E-003 5.309831467E-004 4.322075110E-004 1.030416861E-001 1.532740593E-001 2.041333501E-004 1.192655473E-004 4.937156817E-008 1.806954492E+004 1.108224805E+004 3.135450684E+003 3.719545901E-001 7.705881596E-001 3.269033432E-001 3.716145002E-004
 -9.137533381E-003 4.317801278E-004 1.885192796E-005 1.014443787E+003 4.391653061E+001 1.917437077E+000 5.292700953E-004 3.433180973E-004 3.288790322E-005 1.919700026E-006 6.334250884E-007 3.062236260E-007 2.271341089E-007 6.141347694E-005 8.836201596E-005 1.288414069E-007 7.329119711E-008 2.903089054E-011 6.508153677E-001 6.421846151E-002 3.651901148E-003 1.175971352E-003 5.711829290E-004 4.300508590E-004 1.139576584E-001 1.648069769E-001 2.370249276E-004 1.353555999E-004 5.398295144E-008 1.731432031E+004 1.152168848E+004 3.329435059E+003 3.309939206E-001 7.595021725E-001 3.350417316E-001 3.610328131E-004
 -8.861612563E-003 4.444464560E-004 1.940495167E-005 9.000481567E+002 4.379167175E+001 1.911985755E+000 5.684623029E-004 3.623467928E-004 2.981470243E-005 1.990029205E-006 7.363078680E-007 3.465483189E-007 2.363719744E-007 7.215107325E-005 1.005917802E-004 1.598173895E-007 8.891376524E-008 3.360883100E-011 6.389227509E-001 5.362623185E-002 3.518295474E-003 1.282593235E-003 6.059412262E-004 4.183992860E-004 1.254817396E-001 1.757141501E-001 2.758953779E-004 1.539366785E-004 5.857275909E-008 1.655736914E+004 1.188786621E+004 3.484584961E+003 2.974151373E-001 7.463045120E-001 3.386887014E-001 3.501724859E-004
 -8.587276611E-003 4.583457715E-004 2.001180837E-005 8.241979370E+002 4.341952896E+001 1.895737410E+000 6.011264049E-004 3.754880454E-004 2.591146767E-005 2.019971134E-006 8.376581491E-007 3.815406728E-007 2.336431351E-007 8.373918536E-005 1.122092799E-004 1.980656918E-007 1.075451621E-007 3.823717731E-011 6.261895299E-001 4.423921928E-002 3.377355170E-003 1.381548820E-003 6.316524232E-004 3.919522860E-004 1.378032416E-001 1.854856461E-001 3.236391349E-004 1.761828316E-004 6.306479605E-008 1.580846973E+004 1.213355762E+004 3.576278564E+003 2.758769095E-001 7.299735546E-001 3.352101445E-001 3.390286001E-004